# vtk DataFile Version 5.1
vtk output
ASCII
DATASET POLYDATA
POINTS 3268 float
45 26 64.0039 45 25.0039 65 44.0039 26 65 
45.9961 26 65 45 27 64.0039 44.0039 27 65 
45.9961 27 65 45 28 64.0039 44.0039 28 65 
45.9961 28 65 45 29 64.0039 44.0039 29 65 
45.9961 29 65 45 30 64.0039 44.0039 30 65 
45.9961 30 65 45 30.9961 65 46 30.0039 65 
45.0039 31 65 46 31 64.0039 46.9961 31 65 
46 32 64.0039 45.0039 32 65 46.9961 32 65 
46 32.9961 65 47 32.0039 65 46.0039 33 65 
47 33 64.0039 47.9961 33 65 47 33.9961 65 
48 33.0039 65 47.0039 34 65 48 34 64.0039 
48.9961 34 65 48 34.9961 65 49 34.0039 65 
48.0039 35 65 49 35 64.0039 49.9961 35 65 
49 35.9961 65 50 35.0039 65 49.0039 36 65 
50 36 64.0039 50.9961 36 65 50 37 64.0039 
49.0039 37 65 50.9961 37 65 50 37.9961 65 
51 37.0039 65 50.0039 38 65 51 38 64.0039 
51.9961 38 65 51 39 64.0039 50.0039 39 65 
51.9961 39 65 51 40 64.0039 50.0039 40 65 
51.9961 40 65 51 40.9961 65 52 40.0039 65 
51.0039 41 65 52 41 64.0039 52.9961 41 65 
52 41.9961 65 53 41.0039 65 52.0039 42 65 
53 42 64.0039 53.9961 42 65 53 42.9961 65 
54 42.0039 65 53.0039 43 65 54 43 64.0039 
54.9961 43 65 54 44 64.0039 53.0039 44 65 
54.9961 44 65 54 45 64.0039 53.0039 45 65 
54.9961 45 65 54 45.9961 65 55 45.0039 65 
54.0039 46 65 55 46 64.0039 55.9961 46 65 
55 46.9961 65 56 46.0039 65 55.0039 47 65 
56 47 64.0039 56.9961 47 65 56 48 64.0039 
55.0039 48 65 56.9961 48 65 56 49 64.0039 
55.0039 49 65 56.9961 49 65 56 50 64.0039 
55.0039 50 65 56.9961 50 65 56 50.9961 65 
57 50.0039 65 56.0039 51 65 57 51 64.0039 
57.9961 51 65 57 51.9961 65 58 51.0039 65 
57.0039 52 65 58 52 64.0039 58.9961 52 65 
58 52.9961 65 59 52.0039 65 58.0039 53 65 
59 53 64.0039 59.9961 53 65 59 54 64.0039 
58.0039 54 65 59.9961 54 65 59 55 64.0039 
58.0039 55 65 59.9961 55 65 59 56 64.0039 
58.0039 56 65 59.9961 56 65 59 57 64.0039 
58.0039 57 65 59.9961 57 65 59 58 64.0039 
58.0039 58 65 59.9961 58 65 59 58.9961 65 
60 58.0039 65 59.0039 59 65 60 59 64.0039 
60.9961 59 65 60 60 64.0039 59.0039 60 65 
60.9961 60 65 60 61 64.0039 59.0039 61 65 
60.9961 61 65 60 62 64.0039 59.0039 62 65 
60.9961 62 65 60 63 64.0039 59.0039 63 65 
60.9961 63 65 60 63.9961 65 61 63.0039 65 
60.0039 64 65 61 64 64.0039 61.9961 64 65 
61 64.9961 65 62 64.0039 65 61.0039 65 65 
62 65 64.0039 62.9961 65 65 62 66 64.0039 
61.0039 66 65 62.9961 66 65 62 66.9961 65 
63 66.0039 65 62.0039 67 65 63 67 64.0039 
63.9961 67 65 63 68 64.0039 62.0039 68 65 
63.9961 68 65 63 69 64.0039 62.0039 69 65 
63.9961 69 65 63 70 64.0039 62.0039 70 65 
63.9961 70 65 63 70.9961 65 64 70.0039 65 
63.0039 71 65 64 71 64.0039 64.9961 71 65 
64 72 64.0039 63.0039 72 65 64.9961 72 65 
64 73 64.0039 63.0039 73 65 64.9961 73 65 
64 74 64.0039 63.0039 74 65 64.9961 74 65 
64 74.9961 65 65 74.0039 65 64.0039 75 65 
65 75 64.0039 65.9961 75 65 65 76 64.0039 
64.0039 76 65 65.9961 76 65 65 77 64.0039 
64.0039 77 65 65.9961 77 65 65 78 64.0039 
64.0039 78 65 65.9961 78 65 65 79 64.0039 
64.0039 79 65 65.9961 79 65 65 79.9961 65 
66 79.0039 65 65.0039 80 65 66 80 64.0039 
66.9961 80 65 66 81 64.0039 65.0039 81 65 
66.9961 81 65 66 81.9961 65 67 81.0039 65 
66.0039 82 65 67 82 64.0039 67.9961 82 65 
67 82.9961 65 68 82.0039 65 67.0039 83 65 
68 83 64.0039 68.9961 83 65 68 84 64.0039 
67.0039 84 65 68.9961 84 65 68 85 64.0039 
67.0039 85 65 68.9961 85 65 68 86 64.0039 
67.0039 86 65 68.9961 86 65 68 87 64.0039 
67.0039 87 65 68.9961 87 65 68 87.9961 65 
69 87.0039 65 68.0039 88 65 69 88 64.0039 
69.9961 88 65 69 89 64.0039 68.0039 89 65 
69.9961 89 65 69 90 64.0039 68.0039 90 65 
69.9961 90 65 69 91 64.0039 68.0039 91 65 
69.9961 91 65 69 92 64.0039 68.0039 92 65 
69.9961 92 65 69 92.9961 65 70 92.0039 65 
69.0039 93 65 70 93 64.0039 70.9961 93 65 
70 94 64.0039 69.0039 94 65 70.9961 94 65 
70 95 64.0039 69.0039 95 65 70.9961 95 65 
70 95.9961 65 44 24 65.0039 44 23.0039 66 
43.0039 24 66 45 24 65.0039 45 23.0039 66 
46 24 65.0039 46 23.0039 66 46.9961 24 66 
43 25 65.0039 43 24.0039 66 42.0039 25 66 
44 25 65.0039 45 25 65.0039 46 25 65.0039 
47 24.0039 66 47 25 65.0039 47.9961 25 66 
43 26 65.0039 42.0039 26 66 44 26 65.0039 
46 26 65.0039 47 26 65.0039 47.9961 26 66 
43 27 65.0039 42.0039 27 66 44 27 65.0039 
46 27 65.0039 47 27 65.0039 47.9961 27 66 
43 28 65.0039 42.0039 28 66 44 28 65.0039 
46 28 65.0039 47 28 65.0039 47.9961 28 66 
43 29 65.0039 42.0039 29 66 44 29 65.0039 
46 29 65.0039 47 29 65.0039 47.9961 29 66 
43 30 65.0039 42.0039 30 66 44 30 65.0039 
46 30 65.0039 47 30 65.0039 48 29.0039 66 
48 30 65.0039 48.9961 30 66 43 31 65.0039 
42.0039 31 66 44 31 65.0039 45 31 65.0039 
47 31 65.0039 48 31 65.0039 48.9961 31 66 
43 31.9961 66 43.0039 32 66 44 32 65.0039 
45 32 65.0039 47 32 65.0039 48 32 65.0039 
49 31.0039 66 49 32 65.0039 49.9961 32 66 
44 33 65.0039 43.0039 33 66 45 33 65.0039 
46 33 65.0039 48 33 65.0039 49 33 65.0039 
50 32.0039 66 50 33 65.0039 50.9961 33 66 
44 33.9961 66 44.0039 34 66 45 34 65.0039 
46 34 65.0039 47 34 65.0039 49 34 65.0039 
50 34 65.0039 51 33.0039 66 51 34 65.0039 
51.9961 34 66 45 34.9961 66 45.0039 35 66 
46 35 65.0039 47 35 65.0039 48 35 65.0039 
50 35 65.0039 51 35 65.0039 52 34.0039 66 
52 35 65.0039 52.9961 35 66 46 35.9961 66 
46.0039 36 66 47 36 65.0039 48 36 65.0039 
49 36 65.0039 51 36 65.0039 52 36 65.0039 
52.9961 36 66 47 36.9961 66 47.0039 37 66 
48 37 65.0039 49 37 65.0039 51 37 65.0039 
52 37 65.0039 53 36.0039 66 53 37 65.0039 
53.9961 37 66 48 38 65.0039 47.0039 38 66 
49 38 65.0039 50 38 65.0039 52 38 65.0039 
53 38 65.0039 53.9961 38 66 48 38.9961 66 
48.0039 39 66 49 39 65.0039 50 39 65.0039 
52 39 65.0039 53 39 65.0039 53.9961 39 66 
49 40 65.0039 48.0039 40 66 50 40 65.0039 
52 40 65.0039 53 40 65.0039 54 39.0039 66 
54 40 65.0039 54.9961 40 66 49 41 65.0039 
48.0039 41 66 50 41 65.0039 51 41 65.0039 
53 41 65.0039 54 41 65.0039 55 40.0039 66 
55 41 65.0039 55.9961 41 66 49 41.9961 66 
49.0039 42 66 50 42 65.0039 51 42 65.0039 
52 42 65.0039 54 42 65.0039 55 42 65.0039 
56 41.0039 66 56 42 65.0039 56.9961 42 66 
50 42.9961 66 50.0039 43 66 51 43 65.0039 
52 43 65.0039 53 43 65.0039 55 43 65.0039 
56 43 65.0039 56.9961 43 66 51 43.9961 66 
51.0039 44 66 52 44 65.0039 53 44 65.0039 
55 44 65.0039 56 44 65.0039 56.9961 44 66 
52 45 65.0039 51.0039 45 66 53 45 65.0039 
55 45 65.0039 56 45 65.0039 57 44.0039 66 
57 45 65.0039 57.9961 45 66 52 46 65.0039 
51.0039 46 66 53 46 65.0039 54 46 65.0039 
56 46 65.0039 57 46 65.0039 58 45.0039 66 
58 46 65.0039 58.9961 46 66 52 46.9961 66 
52.0039 47 66 53 47 65.0039 54 47 65.0039 
55 47 65.0039 57 47 65.0039 58 47 65.0039 
58.9961 47 66 53 47.9961 66 53.0039 48 66 
54 48 65.0039 55 48 65.0039 57 48 65.0039 
58 48 65.0039 58.9961 48 66 54 49 65.0039 
53.0039 49 66 55 49 65.0039 57 49 65.0039 
58 49 65.0039 58.9961 49 66 54 50 65.0039 
53.0039 50 66 55 50 65.0039 57 50 65.0039 
58 50 65.0039 59 49.0039 66 59 50 65.0039 
59.9961 50 66 54 51 65.0039 53.0039 51 66 
55 51 65.0039 56 51 65.0039 58 51 65.0039 
59 51 65.0039 60 50.0039 66 60 51 65.0039 
60.9961 51 66 54 51.9961 66 54.0039 52 66 
55 52 65.0039 56 52 65.0039 57 52 65.0039 
59 52 65.0039 60 52 65.0039 61 51.0039 66 
61 52 65.0039 61.9961 52 66 55 52.9961 66 
55.0039 53 66 56 53 65.0039 57 53 65.0039 
58 53 65.0039 60 53 65.0039 61 53 65.0039 
61.9961 53 66 56 53.9961 66 56.0039 54 66 
57 54 65.0039 58 54 65.0039 60 54 65.0039 
61 54 65.0039 61.9961 54 66 57 55 65.0039 
56.0039 55 66 58 55 65.0039 60 55 65.0039 
61 55 65.0039 61.9961 55 66 57 56 65.0039 
56.0039 56 66 58 56 65.0039 60 56 65.0039 
61 56 65.0039 61.9961 56 66 57 57 65.0039 
56.0039 57 66 58 57 65.0039 60 57 65.0039 
61 57 65.0039 61.9961 57 66 57 58 65.0039 
56.0039 58 66 58 58 65.0039 60 58 65.0039 
61 58 65.0039 62 57.0039 66 62 58 65.0039 
62.9961 58 66 57 59 65.0039 56.0039 59 66 
58 59 65.0039 59 59 65.0039 61 59 65.0039 
62 59 65.0039 62.9961 59 66 57 59.9961 66 
57.0039 60 66 58 60 65.0039 59 60 65.0039 
61 60 65.0039 62 60 65.0039 62.9961 60 66 
58 61 65.0039 57.0039 61 66 59 61 65.0039 
61 61 65.0039 62 61 65.0039 62.9961 61 66 
58 62 65.0039 57.0039 62 66 59 62 65.0039 
61 62 65.0039 62 62 65.0039 62.9961 62 66 
58 63 65.0039 57.0039 63 66 59 63 65.0039 
61 63 65.0039 62 63 65.0039 63 62.0039 66 
63 63 65.0039 63.9961 63 66 58 64 65.0039 
57.0039 64 66 59 64 65.0039 60 64 65.0039 
62 64 65.0039 63 64 65.0039 64 63.0039 66 
64 64 65.0039 64.9961 64 66 58 64.9961 66 
58.0039 65 66 59 65 65.0039 60 65 65.0039 
61 65 65.0039 63 65 65.0039 64 65 65.0039 
64.9961 65 66 59 65.9961 66 59.0039 66 66 
60 66 65.0039 61 66 65.0039 63 66 65.0039 
64 66 65.0039 65 65.0039 66 65 66 65.0039 
65.9961 66 66 60 67 65.0039 59.0039 67 66 
61 67 65.0039 62 67 65.0039 64 67 65.0039 
65 67 65.0039 65.9961 67 66 60 67.9961 66 
60.0039 68 66 61 68 65.0039 62 68 65.0039 
64 68 65.0039 65 68 65.0039 65.9961 68 66 
61 69 65.0039 60.0039 69 66 62 69 65.0039 
64 69 65.0039 65 69 65.0039 65.9961 69 66 
61 70 65.0039 60.0039 70 66 62 70 65.0039 
64 70 65.0039 65 70 65.0039 66 69.0039 66 
66 70 65.0039 66.9961 70 66 61 71 65.0039 
60.0039 71 66 62 71 65.0039 63 71 65.0039 
65 71 65.0039 66 71 65.0039 66.9961 71 66 
61 71.9961 66 61.0039 72 66 62 72 65.0039 
63 72 65.0039 65 72 65.0039 66 72 65.0039 
66.9961 72 66 62 73 65.0039 61.0039 73 66 
63 73 65.0039 65 73 65.0039 66 73 65.0039 
66.9961 73 66 62 74 65.0039 61.0039 74 66 
63 74 65.0039 65 74 65.0039 66 74 65.0039 
67 73.0039 66 67 74 65.0039 67.9961 74 66 
62 75 65.0039 61.0039 75 66 63 75 65.0039 
64 75 65.0039 66 75 65.0039 67 75 65.0039 
67.9961 75 66 62 75.9961 66 62.0039 76 66 
63 76 65.0039 64 76 65.0039 66 76 65.0039 
67 76 65.0039 67.9961 76 66 63 77 65.0039 
62.0039 77 66 64 77 65.0039 66 77 65.0039 
67 77 65.0039 67.9961 77 66 63 78 65.0039 
62.0039 78 66 64 78 65.0039 66 78 65.0039 
67 78 65.0039 67.9961 78 66 63 79 65.0039 
62.0039 79 66 64 79 65.0039 66 79 65.0039 
67 79 65.0039 68 78.0039 66 68 79 65.0039 
68.9961 79 66 63 80 65.0039 62.0039 80 66 
64 80 65.0039 65 80 65.0039 67 80 65.0039 
[...]
POINT_DATA 3268
SCALARS scalars float
LOOKUP_TABLE default
1 1 1 1 1 1 1 1 1 
1 1 1 1 1 1 1 1 1 
1 1 1 1 1 1 1 1 1 
1 1 1 1 1 1 1 1 1 
1 1 1 1 1 1 1 1 1 
1 1 1 1 1 1 1 1 1 
1 1 1 1 1 1 1 1 1 
1 1 1 1 1 1 1 1 1 
1 1 1 1 1 1 1 1 1 
1 1 1 1 1 1 1 1 1 
1 1 1 1 1 1 1 1 1 
1 1 1 1 1 1 1 1 1 
1 1 1 1 1 1 1 1 1 
1 1 1 1 1 1 1 1 1 
1 1 1 1 1 1 1 1 1 
1 1 1 1 1 1 1 1 1 
1 1 1 1 1 1 1 1 1 
1 1 1 1 1 1 1 1 1 
1 1 1 1 1 1 1 1 1 
1 1 1 1 1 1 1 1 1 
1 1 1 1 1 1 1 1 1 
1 1 1 1 1 1 1 1 1 
1 1 1 1 1 1 1 1 1 
1 1 1 1 1 1 1 1 1 
1 1 1 1 1 1 1 1 1 
1 1 1 1 1 1 1 1 1 
1 1 1 1 1 1 1 1 1 
1 1 1 1 1 1 1 1 1 
1 1 1 1 1 1 1 1 1 
1 1 1 1 1 1 1 1 1 
1 1 1 1 1 1 1 1 1 
1 1 1 1 1 1 1 1 1 
1 1 1 1 1 1 1 1 1 
1 1 1 1 1 1 1 1 1 
1 1 1 1 1 1 1 1 1 
1 1 1 1 1 1 1 1 1 
1 1 1 1 1 1 1 1 1 
1 1 1 1 1 1 1 1 1 
1 1 1 1 1 1 1 1 1 
1 1 1 1 1 1 1 1 1 
1 1 1 1 1 1 1 1 1 
1 1 1 1 1 1 1 1 1 
1 1 1 1 1 1 1 1 1 
1 1 1 1 1 1 1 1 1 
1 1 1 1 1 1 1 1 1 
1 1 1 1 1 1 1 1 1 
1 1 1 1 1 1 1 1 1 
1 1 1 1 1 1 1 1 1 
1 1 1 1 1 1 1 1 1 
1 1 1 1 1 1 1 1 1 
1 1 1 1 1 1 1 1 1 
1 1 1 1 1 1 1 1 1 
1 1 1 1 1 1 1 1 1 
1 1 1 1 1 1 1 1 1 
1 1 1 1 1 1 1 1 1 
1 1 1 1 1 1 1 1 1 
1 1 1 1 1 1 1 1 1 
1 1 1 1 1 1 1 1 1 
1 1 1 1 1 1 1 1 1 
1 1 1 1 1 1 1 1 1 
1 1 1 1 1 1 1 1 1 
1 1 1 1 1 1 1 1 1 
1 1 1 1 1 1 1 1 1 
1 1 1 1 1 1 1 1 1 
1 1 1 1 1 1 1 1 1 
1 1 1 1 1 1 1 1 1 
1 1 1 1 1 1 1 1 1 
1 1 1 1 1 1 1 1 1 
1 1 1 1 1 1 1 1 1 
1 1 1 1 1 1 1 1 1 
1 1 1 1 1 1 1 1 1 
1 1 1 1 1 1 1 1 1 
1 1 1 1 1 1 1 1 1 
1 1 1 1 1 1 1 1 1 
1 1 1 1 1 1 1 1 1 
1 1 1 1 1 1 1 1 1 
1 1 1 1 1 1 1 1 1 
1 1 1 1 1 1 1 1 1 
1 1 1 1 1 1 1 1 1 
1 1 1 1 1 1 1 1 1 
1 1 1 1 1 1 1 1 1 
1 1 1 1 1 1 1 1 1 
1 1 1 1 1 1 1 1 1 
1 1 1 1 1 1 1 1 1 
1 1 1 1 1 1 1 1 1 
1 1 1 1 1 1 1 1 1 
1 1 1 1 1 1 1 1 1 
1 1 1 1 1 1 1 1 1 
1 1 1 1 1 1 1 1 1 
1 1 1 1 1 1 1 1 1 
1 1 1 1 1 1 1 1 1 
1 1 1 1 1 1 1 1 1 
1 1 1 1 1 1 1 1 1 
1 1 1 1 1 1 1 1 1 
1 1 1 1 1 1 1 1 1 
1 1 1 1 1 1 1 1 1 
1 1 1 1 1 1 1 1 1 
1 1 1 1 1 1 1 1 1 
1 1 1 1 1 1 1 1 1 
1 1 1 1 1 1 1 1 1 
1 1 1 1 1 1 1 1 1 
1 1 1 1 1 1 1 1 1 
1 1 1 1 1 1 1 1 1 
1 1 1 1 1 1 1 1 1 
1 1 1 1 1 1 1 1 1 
1 1 1 1 1 1 1 1 1 
1 1 1 1 1 1 1 1 1 
1 1 1 1 1 1 1 1 1 
1 1 1 1 1 1 1 1 1 
1 1 1 1 1 1 1 1 1 
1 1 1 1 1 1 1 1 1 
1 1 1 1 1 1 1 1 1 
1 1 1 1 1 1 1 1 1 
1 1 1 1 1 1 1 1 1 
1 1 1 1 1 1 1 1 1 
1 1 1 1 1 1 1 1 1 
1 1 1 1 1 1 1 1 1 
1 1 1 1 1 1 1 1 1 
1 1 1 1 1 1 1 1 1 
1 1 1 1 1 1 1 1 1 
1 1 1 1 1 1 1 1 1 
1 1 1 1 1 1 1 1 1 
1 1 1 1 1 1 1 1 1 
1 1 1 1 1 1 1 1 1 
1 1 1 1 1 1 1 1 1 
1 1 1 1 1 1 1 1 1 
1 1 1 1 1 1 1 1 1 
1 1 1 1 1 1 1 1 1 
1 1 1 1 1 1 1 1 1 
1 1 1 1 1 1 1 1 1 
1 1 1 1 1 1 1 1 1 
1 1 1 1 1 1 1 1 1 
1 1 1 1 1 1 1 1 1 
1 1 1 1 1 1 1 1 1 
1 1 1 1 1 1 1 1 1 
1 1 1 1 1 1 1 1 1 
1 1 1 1 1 1 1 1 1 
1 1 1 1 1 1 1 1 1 
1 1 1 1 1 1 1 1 1 
1 1 1 1 1 1 1 1 1 
1 1 1 1 1 1 1 1 1 
1 1 1 1 1 1 1 1 1 
1 1 1 1 1 1 1 1 1 
1 1 1 1 1 1 1 1 1 
1 1 1 1 1 1 1 1 1 
1 1 1 1 1 1 1 1 1 
1 1 1 1 1 1 1 1 1 
1 1 1 1 1 1 1 1 1 
1 1 1 1 1 1 1 1 1 
1 1 1 1 1 1 1 1 1 
1 1 1 1 1 1 1 1 1 
1 1 1 1 1 1 1 1 1 
1 1 1 1 1 1 1 1 1 
1 1 1 1 1 1 1 1 1 
1 1 1 1 1 1 1 1 1 
1 1 1 1 1 1 1 1 1 
1 1 1 1 1 1 1 1 1 
1 1 1 1 1 1 1 1 1 
1 1 1 1 1 1 1 1 1 
1 1 1 1 1 1 1 1 1 
1 1 1 1 1 1 1 1 1 
1 1 1 1 1 1 1 1 1 
1 1 1 1 1 1 1 1 1 
1 1 1 1 1 1 1 1 1 
1 1 1 1 1 1 1 1 1 
1 1 1 1 1 1 1 1 1 
1 1 1 1 1 1 1 1 1 
1 1 1 1 1 1 1 1 1 
1 1 1 1 1 1 1 1 1 
1 1 1 1 1 1 1 1 1 
1 1 1 1 1 1 1 1 1 
1 1 1 1 1 1 1 1 1 
1 1 1 1 1 1 1 1 1 
1 1 1 1 1 1 1 1 1 
1 1 1 1 1 1 1 1 1 
1 1 1 1 1 1 1 1 1 
1 1 1 1 1 1 1 1 1 
1 1 1 1 1 1 1 1 1 
1 1 1 1 1 1 1 1 1 
1 1 1 1 1 1 1 1 1 
1 1 1 1 1 1 1 1 1 
1 1 1 1 1 1 1 1 1 
1 1 1 1 1 1 1 1 1 
1 1 1 1 1 1 1 1 1 
1 1 1 1 1 1 1 1 1 
1 1 1 1 1 1 1 1 1 
1 1 1 1 1 1 1 1 1 
1 1 1 1 1 1 1 1 1 
1 1 1 1 1 1 1 1 1 
1 1 1 1 1 1 1 1 1 
1 1 1 1 1 1 1 1 1 
1 1 1 1 1 1 1 1 1 
1 1 1 1 1 1 1 1 1 
1 1 1 1 1 1 1 1 1 
1 1 1 1 1 1 1 1 1 
1 1 1 1 1 1 1 1 1 
1 1 1 1 1 1 1 1 1 
1 1 1 1 1 1 1 1 1 
1 1 1 1 1 1 1 1 1 
1 1 1 1 1 1 1 1 1 
1 1 1 1 1 1 1 1 1 
1 1 1 1 1 1 1 1 1 
1 1 1 1 1 1 1 1 1 
1 1 1 1 1 1 1 1 1 
1 1 1 1 1 1 1 1 1 
1 1 1 1 1 1 1 1 1 
1 1 1 1 1 1 1 1 1 
1 1 1 1 1 1 1 1 1 
1 1 1 1 1 1 1 1 1 
1 1 1 1 1 1 1 1 1 
1 1 1 1 1 1 1 1 1 
1 1 1 1 1 1 1 1 1 
1 1 1 1 1 1 1 1 1 
1 1 1 1 1 1 1 1 1 
1 1 1 1 1 1 1 1 1 
1 1 1 1 1 1 1 1 1 
1 1 1 1 1 1 1 1 1 
1 1 1 1 1 1 1 1 1 
1 1 1 1 1 1 1 1 1 
1 1 1 1 1 1 1 1 1 
1 1 1 1 1 1 1 1 1 
1 1 1 1 1 1 1 1 1 
1 1 1 1 1 1 1 1 1 
1 1 1 1 1 1 1 1 1 
1 1 1 1 1 1 1 1 1 
1 1 1 1 1 1 1 1 1 
1 1 1 1 1 1 1 1 1 
1 1 1 1 1 1 1 1 1 
1 1 1 1 1 1 1 1 1 
1 1 1 1 1 1 1 1 1 
1 1 1 1 1 1 1 1 1 
1 1 1 1 1 1 1 1 1 
1 1 1 1 1 1 1 1 1 
1 1 1 1 1 1 1 1 1 
1 1 1 1 1 1 1 1 1 
1 1 1 1 1 1 1 1 1 
1 1 1 1 1 1 1 1 1 
1 1 1 1 1 1 1 1 1 
1 1 1 1 1 1 1 1 1 
1 1 1 1 1 1 1 1 1 
1 1 1 1 1 1 1 1 1 
1 1 1 1 1 1 1 1 1 
1 1 1 1 1 1 1 1 1 
1 1 1 1 1 1 1 1 1 
1 1 1 1 1 1 1 1 1 
1 1 1 1 1 1 1 1 1 
1 1 1 1 1 1 1 1 1 
1 1 1 1 1 1 1 1 1 
1 1 1 1 1 1 1 1 1 
1 1 1 1 1 1 1 1 1 
1 1 1 1 1 1 1 1 1 
1 1 1 1 1 1 1 1 1 
1 1 1 1 1 1 1 1 1 
1 1 1 1 1 1 1 1 1 
1 1 1 1 1 1 1 1 1 
1 1 1 1 1 1 1 1 1 
1 1 1 1 1 1 1 1 1 
1 1 1 1 1 1 1 1 1 
1 1 1 1 1 1 1 1 1 
1 1 1 1 1 1 1 1 1 
1 1 1 1 1 1 1 1 1 
1 1 1 1 1 1 1 1 1 
1 1 1 1 1 1 1 1 1 
1 1 1 1 1 1 1 1 1 
1 1 1 1 1 1 1 1 1 
1 1 1 1 1 1 1 1 1 
1 1 1 1 1 1 1 1 1 
1 1 1 1 1 1 1 1 1 
1 1 1 1 1 1 1 1 1 
1 1 1 1 1 1 1 1 1 
1 1 1 1 1 1 1 1 1 
1 1 1 1 1 1 1 1 1 
1 1 1 1 1 1 1 1 1 
1 1 1 1 1 1 1 1 1 
1 1 1 1 1 1 1 1 1 
1 1 1 1 1 1 1 1 1 
1 1 1 1 1 1 1 1 1 
1 1 1 1 1 1 1 1 1 
1 1 1 1 1 1 1 1 1 
1 1 1 1 1 1 1 1 1 
1 1 1 1 1 1 1 1 1 
1 1 1 1 1 1 1 1 1 
1 1 1 1 1 1 1 1 1 
1 1 1 1 1 1 1 1 1 
1 1 1 1 1 1 1 1 1 
1 1 1 1 1 1 1 1 1 
1 1 1 1 1 1 1 1 1 
1 1 1 1 1 1 1 1 1 
1 1 1 1 1 1 1 1 1 
1 1 1 1 1 1 1 1 1 
1 1 1 1 1 1 1 1 1 
1 1 1 1 1 1 1 1 1 
1 1 1 1 1 1 1 1 1 
1 1 1 1 1 1 1 1 1 
1 1 1 1 1 1 1 1 1 
1 1 1 1 1 1 1 1 1 
1 1 1 1 1 1 1 1 1 
1 1 1 1 1 1 1 1 1 
1 1 1 1 1 1 1 1 1 
1 1 1 1 1 1 1 1 1 
1 1 1 1 1 1 1 1 1 
1 1 1 1 1 1 1 1 1 
1 1 1 1 1 1 1 1 1 
1 1 1 1 1 1 1 1 1 
1 1 1 1 1 1 1 1 1 
1 1 1 1 1 1 1 1 1 
1 1 1 1 1 1 1 1 1 
1 1 1 1 1 1 1 1 1 
1 1 1 1 1 1 1 1 1 
1 1 1 1 1 1 1 1 1 
1 1 1 1 1 1 1 1 1 
1 1 1 1 1 1 1 1 1 
1 1 1 1 1 1 1 1 1 
1 1 1 1 1 1 1 1 1 
1 1 1 1 1 1 1 1 1 
1 1 1 1 1 1 1 1 1 
1 1 1 1 1 1 1 1 1 
1 1 1 1 1 1 1 1 1 
1 1 1 1 1 1 1 1 1 
1 1 1 1 1 1 1 1 1 
1 1 1 1 1 1 1 1 1 
1 1 1 1 1 1 1 1 1 
1 1 1 1 1 1 1 1 1 
1 1 1 1 1 1 1 1 1 
1 1 1 1 1 1 1 1 1 
1 1 1 1 1 1 1 1 1 
1 1 1 1 1 1 1 1 1 
1 1 1 1 1 1 1 1 1 
1 1 1 1 1 1 1 1 1 
1 1 1 1 1 1 1 1 1 
1 1 1 1 1 1 1 1 1 
1 1 1 1 1 1 1 1 1 
1 1 1 1 1 1 1 1 1 
1 1 1 1 1 1 1 1 1 
1 1 1 1 1 1 1 1 1 
1 1 1 1 1 1 1 1 1 
1 1 1 1 1 1 1 1 1 
1 1 1 1 1 1 1 1 1 
1 1 1 1 1 1 1 1 1 
1 1 1 1 1 1 1 1 1 
1 1 1 1 1 1 1 1 1 
1 1 1 1 1 1 1 1 1 
1 1 1 1 1 1 1 1 1 
1 1 1 1 1 1 1 1 1 
1 1 1 1 1 1 1 1 1 
1 1 1 1 1 1 1 1 1 
1 1 1 1 1 1 1 1 1 
1 1 1 1 1 1 1 1 1 
1 1 1 1 1 1 1 1 1 
1 1 1 1 1 1 1 1 1 
1 1 1 1 1 1 1 1 1 
1 1 1 1 1 1 1 1 1 
1 1 1 1 1 1 1 1 1 
1 1 1 1 1 1 1 1 1 
1 1 1 1 1 1 1 1 1 
1 1 1 1 1 1 1 1 1 
1 1 1 1 1 1 1 1 1 
1 1 1 1 1 1 1 1 1 
1 1 1 1 1 1 1 1 1 
1 1 1 1 1 1 1 1 1 
1 1 1 1 1 1 1 1 1 
1 1 1 1 1 1 1 1 1 
1 1 1 1 1 1 1 1 1 
1 
NORMALS normals float
0 -0.00392154 -0.999992 0 -0.707107 -0.707107 -0.705714 -0.0027784 -0.708492 
0.705714 -0.0027784 -0.708492 0 0 -1 -0.705716 0 -0.708495 
0.705716 0 -0.708495 0 0 -1 -0.705716 0 -0.708495 
0.705716 0 -0.708495 0 0 -1 -0.705716 0 -0.708495 
0.705716 0 -0.708495 0 0.00392154 -0.999992 -0.705714 0.0027784 -0.708492 
0.577347 -0.575074 -0.57962 -0.575838 0.578105 -0.578105 0.575838 -0.578105 -0.578105 
-0.577347 0.575074 -0.57962 0 -0.00392154 -0.999992 0.705714 -0.0027784 -0.708492 
0 0.00392154 -0.999992 -0.705714 0.0027784 -0.708492 0.577347 -0.575074 -0.57962 
-0.575838 0.578105 -0.578105 0.576593 -0.576593 -0.578863 -0.576593 0.576593 -0.578863 
0 0 -1 0.576593 -0.576593 -0.578863 -0.576593 0.576593 -0.578863 
0.576593 -0.576593 -0.578863 -0.576593 0.576593 -0.578863 0 0 -1 
0.576593 -0.576593 -0.578863 -0.576593 0.576593 -0.578863 0.576593 -0.576593 -0.578863 
-0.576593 0.576593 -0.578863 0 0 -1 0.576593 -0.576593 -0.578863 
-0.576593 0.576593 -0.578863 0.575838 -0.578105 -0.578105 -0.577347 0.575074 -0.57962 
0 -0.00392154 -0.999992 0.705714 -0.0027784 -0.708492 0 0.00392154 -0.999992 
-0.705714 0.0027784 -0.708492 0.577347 -0.575074 -0.57962 -0.575838 0.578105 -0.578105 
0.575838 -0.578105 -0.578105 -0.577347 0.575074 -0.57962 0 -0.00392154 -0.999992 
0.705714 -0.0027784 -0.708492 0 0 -1 -0.705716 0 -0.708495 
0.705716 0 -0.708495 0 0.00392154 -0.999992 -0.705714 0.0027784 -0.708492 
0.577347 -0.575074 -0.57962 -0.575838 0.578105 -0.578105 0.576593 -0.576593 -0.578863 
-0.576593 0.576593 -0.578863 0 0 -1 0.576593 -0.576593 -0.578863 
-0.576593 0.576593 -0.578863 0.576593 -0.576593 -0.578863 -0.576593 0.576593 -0.578863 
0 0 -1 0.576593 -0.576593 -0.578863 -0.576593 0.576593 -0.578863 
0.575838 -0.578105 -0.578105 -0.577347 0.575074 -0.57962 0 -0.00392154 -0.999992 
0.705714 -0.0027784 -0.708492 0 0 -1 -0.705716 0 -0.708495 
0.705716 0 -0.708495 0 0.00392154 -0.999992 -0.705714 0.0027784 -0.708492 
0.577347 -0.575074 -0.57962 -0.575838 0.578105 -0.578105 0.576593 -0.576593 -0.578863 
-0.576593 0.576593 -0.578863 0 0 -1 0.576593 -0.576593 -0.578863 
-0.576593 0.576593 -0.578863 0.575838 -0.578105 -0.578105 -0.577347 0.575074 -0.57962 
0 -0.00392154 -0.999992 0.705714 -0.0027784 -0.708492 0 0 -1 
-0.705716 0 -0.708495 0.705716 0 -0.708495 0 0 -1 
-0.705716 0 -0.708495 0.705716 0 -0.708495 0 0.00392154 -0.999992 
-0.705714 0.0027784 -0.708492 0.577347 -0.575074 -0.57962 -0.575838 0.578105 -0.578105 
0.576593 -0.576593 -0.578863 -0.576593 0.576593 -0.578863 0 0 -1 
0.576593 -0.576593 -0.578863 -0.576593 0.576593 -0.578863 0.576593 -0.576593 -0.578863 
-0.576593 0.576593 -0.578863 0 0 -1 0.576593 -0.576593 -0.578863 
-0.576593 0.576593 -0.578863 0.575838 -0.578105 -0.578105 -0.577347 0.575074 -0.57962 
0 -0.00392154 -0.999992 0.705714 -0.0027784 -0.708492 0 0 -1 
-0.705716 0 -0.708495 0.705716 0 -0.708495 0 0 -1 
-0.705716 0 -0.708495 0.705716 0 -0.708495 0 0 -1 
-0.705716 0 -0.708495 0.705716 0 -0.708495 0 0 -1 
-0.705716 0 -0.708495 0.705716 0 -0.708495 0 0.00392154 -0.999992 
-0.705714 0.0027784 -0.708492 0.577347 -0.575074 -0.57962 -0.575838 0.578105 -0.578105 
0.575838 -0.578105 -0.578105 -0.577347 0.575074 -0.57962 0 -0.00392154 -0.999992 
0.705714 -0.0027784 -0.708492 0 0 -1 -0.705716 0 -0.708495 
0.705716 0 -0.708495 0 0 -1 -0.705716 0 -0.708495 
0.705716 0 -0.708495 0 0 -1 -0.705716 0 -0.708495 
0.705716 0 -0.708495 0 0.00392154 -0.999992 -0.705714 0.0027784 -0.708492 
0.577347 -0.575074 -0.57962 -0.575838 0.578105 -0.578105 0.576593 -0.576593 -0.578863 
-0.576593 0.576593 -0.578863 0 0 -1 0.576593 -0.576593 -0.578863 
-0.576593 0.576593 -0.578863 0.575838 -0.578105 -0.578105 -0.577347 0.575074 -0.57962 
0 -0.00392154 -0.999992 0.705714 -0.0027784 -0.708492 0 0.00392154 -0.999992 
-0.705714 0.0027784 -0.708492 0.577347 -0.575074 -0.57962 -0.575838 0.578105 -0.578105 
0.575838 -0.578105 -0.578105 -0.577347 0.575074 -0.57962 0 -0.00392154 -0.999992 
0.705714 -0.0027784 -0.708492 0 0 -1 -0.705716 0 -0.708495 
0.705716 0 -0.708495 0 0 -1 -0.705716 0 -0.708495 
0.705716 0 -0.708495 0 0.00392154 -0.999992 -0.705714 0.0027784 -0.708492 
0.577347 -0.575074 -0.57962 -0.575838 0.578105 -0.578105 0.575838 -0.578105 -0.578105 
-0.577347 0.575074 -0.57962 0 -0.00392154 -0.999992 0.705714 -0.0027784 -0.708492 
0 0 -1 -0.705716 0 -0.708495 0.705716 0 -0.708495 
0 0 -1 -0.705716 0 -0.708495 0.705716 0 -0.708495 
0 0.00392154 -0.999992 -0.705714 0.0027784 -0.708492 0.577347 -0.575074 -0.57962 
-0.575838 0.578105 -0.578105 0.575838 -0.578105 -0.578105 -0.577347 0.575074 -0.57962 
0 -0.00392154 -0.999992 0.705714 -0.0027784 -0.708492 0 0 -1 
-0.705716 0 -0.708495 0.705716 0 -0.708495 0 0 -1 
-0.705716 0 -0.708495 0.705716 0 -0.708495 0 0 -1 
-0.705716 0 -0.708495 0.705716 0 -0.708495 0 0.00392154 -0.999992 
-0.705714 0.0027784 -0.708492 0.577347 -0.575074 -0.57962 -0.575838 0.578105 -0.578105 
0.575838 -0.578105 -0.578105 -0.577347 0.575074 -0.57962 0 -0.00392154 -0.999992 
0.705714 -0.0027784 -0.708492 0 0.00392154 -0.999992 -0.705714 0.0027784 -0.708492 
0.577347 -0.575074 -0.57962 -0.575838 0.578105 -0.578105 0.576593 -0.576593 -0.578863 
-0.576593 0.576593 -0.578863 0 0 -1 0.576593 -0.576593 -0.578863 
-0.576593 0.576593 -0.578863 0.575838 -0.578105 -0.578105 -0.577347 0.575074 -0.57962 
0 -0.00392154 -0.999992 0.705714 -0.0027784 -0.708492 0 0 -1 
-0.705716 0 -0.708495 0.705716 0 -0.708495 0 0 -1 
-0.705716 0 -0.708495 0.705716 0 -0.708495 0 0 -1 
-0.705716 0 -0.708495 0.705716 0 -0.708495 0 0.00392154 -0.999992 
-0.705714 0.0027784 -0.708492 0.577347 -0.575074 -0.57962 -0.575838 0.578105 -0.578105 
0.575838 -0.578105 -0.578105 -0.577347 0.575074 -0.57962 0 -0.00392154 -0.999992 
0.705714 -0.0027784 -0.708492 0 0 -1 -0.705716 0 -0.708495 
0.705716 0 -0.708495 0 0 -1 -0.705716 0 -0.708495 
0.705716 0 -0.708495 0 0 -1 -0.705716 0 -0.708495 
0.705716 0 -0.708495 0 0.00392154 -0.999992 -0.705714 0.0027784 -0.708492 
0.577347 -0.575074 -0.57962 -0.575838 0.578105 -0.578105 0.575838 -0.578105 -0.578105 
-0.577347 0.575074 -0.57962 0 -0.00392154 -0.999992 0.705714 -0.0027784 -0.708492 
0 0 -1 -0.705716 0 -0.708495 0.705716 0 -0.708495 
0 0.00392154 -0.999992 -0.705714 0.0027784 -0.708492 0.705714 0.0027784 -0.708492 
0 0.707107 -0.707107 -0.00392151 -0.00392151 -0.999985 -0.00277296 -0.707104 -0.707104 
-0.57735 -0.57735 -0.57735 0 -0.00392154 -0.999992 0 -0.707107 -0.707107 
0.00392151 -0.00392151 -0.999985 0.00277296 -0.707104 -0.707104 0.57735 -0.57735 -0.57735 
-0.00392151 -0.00392151 -0.999985 -0.57735 -0.57735 -0.57735 -0.707104 -0.00277296 -0.707104 
0 0 -1 0 -0.705716 -0.708495 0 0 -1 
0.57735 -0.57735 -0.57735 0.00392151 -0.00392151 -0.999985 0.707104 -0.00277296 -0.707104 
-0.00392154 0 -0.999992 -0.707107 0 -0.707107 -0.705716 0 -0.708495 
0.705716 0 -0.708495 0.00392154 0 -0.999992 0.707107 0 -0.707107 
-0.00392154 0 -0.999992 -0.707107 0 -0.707107 -0.705716 0 -0.708495 
0.705716 0 -0.708495 0.00392154 0 -0.999992 0.707107 0 -0.707107 
-0.00392154 0 -0.999992 -0.707107 0 -0.707107 -0.705716 0 -0.708495 
0.705716 0 -0.708495 0.00392154 0 -0.999992 0.707107 0 -0.707107 
-0.00392154 0 -0.999992 -0.707107 0 -0.707107 -0.705716 0 -0.708495 
0.705716 0 -0.708495 0.00392154 0 -0.999992 0.578105 -0.575838 -0.578105 
-0.00392154 0 -0.999992 -0.707107 0 -0.707107 -0.705716 0 -0.708495 
0.576593 -0.576593 -0.578863 0 0 -1 0.57735 -0.57735 -0.57735 
0.00392151 -0.00392151 -0.999985 0.707104 -0.00277296 -0.707104 -0.00392151 0.00392151 -0.999985 
-0.707104 0.00277296 -0.707104 0 0 -1 -0.576593 0.576593 -0.578863 
0.705716 0 -0.708495 0.00392154 0 -0.999992 0.578105 -0.575838 -0.578105 
-0.57735 0.57735 -0.57735 -0.578105 0.575838 -0.578105 -0.00392154 0 -0.999992 
-0.705716 0 -0.708495 0.576593 -0.576593 -0.578863 0 0 -1 
0.57735 -0.57735 -0.57735 0.00392151 -0.00392151 -0.999985 0.57735 -0.57735 -0.57735 
-0.00392151 0.00392151 -0.999985 -0.707104 0.00277296 -0.707104 0 0 -1 
-0.576593 0.576593 -0.578863 0.576593 -0.576593 -0.578863 0 0 -1 
0.57735 -0.57735 -0.57735 0.00392151 -0.00392151 -0.999985 0.57735 -0.57735 -0.57735 
-0.57735 0.57735 -0.57735 -0.57735 0.57735 -0.57735 -0.00392151 0.00392151 -0.999985 
0 0 -1 -0.576593 0.576593 -0.578863 0.576593 -0.576593 -0.578863 
0 0 -1 0.57735 -0.57735 -0.57735 0.00392151 -0.00392151 -0.999985 
0.57735 -0.57735 -0.57735 -0.57735 0.57735 -0.57735 -0.57735 0.57735 -0.57735 
-0.00392151 0.00392151 -0.999985 0 0 -1 -0.576593 0.576593 -0.578863 
0.576593 -0.576593 -0.578863 0 0 -1 0.57735 -0.57735 -0.57735 
0.00392151 -0.00392151 -0.999985 0.707104 -0.00277296 -0.707104 -0.57735 0.57735 -0.57735 
-0.57735 0.57735 -0.57735 -0.00392151 0.00392151 -0.999985 0 0 -1 
-0.576593 0.576593 -0.578863 0.705716 0 -0.708495 0.00392154 0 -0.999992 
0.578105 -0.575838 -0.578105 -0.57735 0.57735 -0.57735 -0.578105 0.575838 -0.578105 
-0.00392154 0 -0.999992 -0.705716 0 -0.708495 0.576593 -0.576593 -0.578863 
0 0 -1 0.57735 -0.57735 -0.57735 0.00392151 -0.00392151 -0.999985 
0.707104 -0.00277296 -0.707104 -0.00392151 0.00392151 -0.999985 -0.707104 0.00277296 -0.707104 
0 0 -1 -0.576593 0.576593 -0.578863 0.705716 0 -0.708495 
0.00392154 0 -0.999992 0.707107 0 -0.707107 -0.57735 0.57735 -0.57735 
-0.578105 0.575838 -0.578105 -0.00392154 0 -0.999992 -0.705716 0 -0.708495 
0.705716 0 -0.708495 0.00392154 0 -0.999992 0.578105 -0.575838 -0.578105 
-0.00392154 0 -0.999992 -0.707107 0 -0.707107 -0.705716 0 -0.708495 
0.576593 -0.576593 -0.578863 0 0 -1 0.57735 -0.57735 -0.57735 
0.00392151 -0.00392151 -0.999985 0.57735 -0.57735 -0.57735 -0.00392151 0.00392151 -0.999985 
-0.707104 0.00277296 -0.707104 0 0 -1 -0.576593 0.576593 -0.578863 
0.576593 -0.576593 -0.578863 0 0 -1 0.57735 -0.57735 -0.57735 
0.00392151 -0.00392151 -0.999985 0.57735 -0.57735 -0.57735 -0.57735 0.57735 -0.57735 
-0.57735 0.57735 -0.57735 -0.00392151 0.00392151 -0.999985 0 0 -1 
-0.576593 0.576593 -0.578863 0.576593 -0.576593 -0.578863 0 0 -1 
0.57735 -0.57735 -0.57735 0.00392151 -0.00392151 -0.999985 0.707104 -0.00277296 -0.707104 
-0.57735 0.57735 -0.57735 -0.57735 0.57735 -0.57735 -0.00392151 0.00392151 -0.999985 
0 0 -1 -0.576593 0.576593 -0.578863 0.705716 0 -0.708495 
0.00392154 0 -0.999992 0.707107 0 -0.707107 -0.57735 0.57735 -0.57735 
-0.578105 0.575838 -0.578105 -0.00392154 0 -0.999992 -0.705716 0 -0.708495 
0.705716 0 -0.708495 0.00392154 0 -0.999992 0.578105 -0.575838 -0.578105 
-0.00392154 0 -0.999992 -0.707107 0 -0.707107 -0.705716 0 -0.708495 
0.576593 -0.576593 -0.578863 0 0 -1 0.57735 -0.57735 -0.57735 
0.00392151 -0.00392151 -0.999985 0.57735 -0.57735 -0.57735 -0.00392151 0.00392151 -0.999985 
-0.707104 0.00277296 -0.707104 0 0 -1 -0.576593 0.576593 -0.578863 
0.576593 -0.576593 -0.578863 0 0 -1 0.57735 -0.57735 -0.57735 
0.00392151 -0.00392151 -0.999985 0.707104 -0.00277296 -0.707104 -0.57735 0.57735 -0.57735 
-0.57735 0.57735 -0.57735 -0.00392151 0.00392151 -0.999985 0 0 -1 
-0.576593 0.576593 -0.578863 0.705716 0 -0.708495 0.00392154 0 -0.999992 
0.707107 0 -0.707107 -0.57735 0.57735 -0.57735 -0.578105 0.575838 -0.578105 
-0.00392154 0 -0.999992 -0.705716 0 -0.708495 0.705716 0 -0.708495 
0.00392154 0 -0.999992 0.707107 0 -0.707107 -0.00392154 0 -0.999992 
-0.707107 0 -0.707107 -0.705716 0 -0.708495 0.705716 0 -0.708495 
0.00392154 0 -0.999992 0.578105 -0.575838 -0.578105 -0.00392154 0 -0.999992 
-0.707107 0 -0.707107 -0.705716 0 -0.708495 0.576593 -0.576593 -0.578863 
0 0 -1 0.57735 -0.57735 -0.57735 0.00392151 -0.00392151 -0.999985 
0.57735 -0.57735 -0.57735 -0.00392151 0.00392151 -0.999985 -0.707104 0.00277296 -0.707104 
0 0 -1 -0.576593 0.576593 -0.578863 0.576593 -0.576593 -0.578863 
0 0 -1 0.57735 -0.57735 -0.57735 0.00392151 -0.00392151 -0.999985 
0.57735 -0.57735 -0.57735 -0.57735 0.57735 -0.57735 -0.57735 0.57735 -0.57735 
-0.00392151 0.00392151 -0.999985 0 0 -1 -0.576593 0.576593 -0.578863 
0.576593 -0.576593 -0.578863 0 0 -1 0.57735 -0.57735 -0.57735 
0.00392151 -0.00392151 -0.999985 0.707104 -0.00277296 -0.707104 -0.57735 0.57735 -0.57735 
-0.57735 0.57735 -0.57735 -0.00392151 0.00392151 -0.999985 0 0 -1 
-0.576593 0.576593 -0.578863 0.705716 0 -0.708495 0.00392154 0 -0.999992 
0.707107 0 -0.707107 -0.57735 0.57735 -0.57735 -0.578105 0.575838 -0.578105 
-0.00392154 0 -0.999992 -0.705716 0 -0.708495 0.705716 0 -0.708495 
0.00392154 0 -0.999992 0.707107 0 -0.707107 -0.00392154 0 -0.999992 
-0.707107 0 -0.707107 -0.705716 0 -0.708495 0.705716 0 -0.708495 
0.00392154 0 -0.999992 0.707107 0 -0.707107 -0.00392154 0 -0.999992 
-0.707107 0 -0.707107 -0.705716 0 -0.708495 0.705716 0 -0.708495 
0.00392154 0 -0.999992 0.707107 0 -0.707107 -0.00392154 0 -0.999992 
-0.707107 0 -0.707107 -0.705716 0 -0.708495 0.705716 0 -0.708495 
0.00392154 0 -0.999992 0.578105 -0.575838 -0.578105 -0.00392154 0 -0.999992 
-0.707107 0 -0.707107 -0.705716 0 -0.708495 0.576593 -0.576593 -0.578863 
0 0 -1 0.57735 -0.57735 -0.57735 0.00392151 -0.00392151 -0.999985 
0.707104 -0.00277296 -0.707104 -0.00392151 0.00392151 -0.999985 -0.707104 0.00277296 -0.707104 